[
  {
    "number": 1,
    "symbol": "H",
    "name": "Hydrogen",
    "atomic_mass": 1.008,
    "category": "diatomic nonmetal",
    "group": 1,
    "period": 1,
    "phase": "gas",
    "xpos": 1,
    "ypos": 1,
    "atomic_radius": 53,
    "ionization_energy": 1312,
    "electron_configuration": "1s1",
    "electronegativity_pauling": 2.2,
    "density": 0.00008988,
    "melting_point": 14.01,
    "boiling_point": 20.28,
    "discovered_by": "Henry Cavendish",
    "appearance": "colorless gas",
    "summary": "Hydrogen is a chemical element with symbol H and atomic number 1. With a standard atomic weight of 1.008, hydrogen is the lightest element on the periodic table."
  },
  {
    "number": 2,
    "symbol": "He",
    "name": "Helium",
    "atomic_mass": 4.002602,
    "category": "noble gas",
    "group": 18,
    "period": 1,
    "phase": "gas",
    "xpos": 18,
    "ypos": 1,
    "atomic_radius": 31,
    "ionization_energy": 2372,
    "electron_configuration": "1s2",
    "electronegativity_pauling": null,
    "density": 0.0001785,
    "melting_point": 0.95,
    "boiling_point": 4.22,
    "discovered_by": "Pierre Janssen",
    "appearance": "colorless gas",
    "summary": "Helium is a chemical element with symbol He and atomic number 2. It is a colorless, odorless, tasteless, non-toxic, inert, monatomic gas, the first in the noble gas group in the periodic table."
  },
  {
    "number": 3,
    "symbol": "Li",
    "name": "Lithium",
    "atomic_mass": 6.94,
    "category": "alkali metal",
    "group": 1,
    "period": 2,
    "phase": "solid",
    "xpos": 1,
    "ypos": 2,
    "atomic_radius": 167,
    "ionization_energy": 520,
    "electron_configuration": "1s2 2s1",
    "electronegativity_pauling": 0.98,
    "density": 0.534,
    "melting_point": 453.65,
    "boiling_point": 1603,
    "discovered_by": "Johan August Arfwedson",
    "appearance": "silvery-white",
    "summary": "Lithium is a chemical element with symbol Li and atomic number 3. It is a soft, silvery-white alkali metal."
  },
  {
    "number": 8,
    "symbol": "O",
    "name": "Oxygen",
    "atomic_mass": 15.999,
    "category": "diatomic nonmetal",
    "group": 16,
    "period": 2,
    "phase": "gas",
    "xpos": 16,
    "ypos": 2,
    "atomic_radius": 48,
    "ionization_energy": 1314,
    "electron_configuration": "1s2 2s2 2p4",
    "electronegativity_pauling": 3.44,
    "density": 0.001429,
    "melting_point": 54.36,
    "boiling_point": 90.2,
    "discovered_by": "Carl Wilhelm Scheele",
    "appearance": "colorless gas",
    "summary": "Oxygen is a chemical element with symbol O and atomic number 8. It is a member of the chalcogen group on the periodic table, a highly reactive nonmetal."
  },
  {
    "number": 26,
    "symbol": "Fe",
    "name": "Iron",
    "atomic_mass": 55.845,
    "category": "transition metal",
    "group": 8,
    "period": 4,
    "phase": "solid",
    "xpos": 8,
    "ypos": 4,
    "atomic_radius": 156,
    "ionization_energy": 762,
    "electron_configuration": "1s2 2s2 2p6 3s2 3p6 4s2 3d6",
    "electronegativity_pauling": 1.83,
    "density": 7.874,
    "melting_point": 1811,
    "boiling_point": 3134,
    "discovered_by": "Ancient",
    "appearance": "lustrous metallic with a grayish tinge",
    "summary": "Iron is a chemical element with symbol Fe and atomic number 26. It is a metal in the first transition series."
  }
  // Continue with all 118 elements in this format
]